 Gaussian 16, Revision C.01,
 Gaussian 16:  ES64L-G16RevC.01  3-Jul-2019

 ----------------------------------------------------------------------
 # B3LYP/genecp Integral=(Grid=UltraFine) Opt Pop(MK,ReadRadii) IOp(6/3
 3=2,6/42=6)
 ----------------------------------------------------------------------

 ---
 CLR
 ---
 Symbolic Z-matrix:
 Charge =  1 Multiplicity = 1

 SCF Done:  E(RB3LYP) =  -1714.17279169     A.U. after   21 cycles
 SCF Done:  E(RB3LYP) =  -1714.17966987     A.U. after   12 cycles
 SCF Done:  E(RB3LYP) =  -1714.18042432     A.U. after   11 cycles
 SCF Done:  E(RB3LYP) =  -1714.18059219     A.U. after   10 cycles
 SCF Done:  E(RB3LYP) =  -1714.18156882     A.U. after   12 cycles
 SCF Done:  E(RB3LYP) =  -1714.18371234     A.U. after   13 cycles
 SCF Done:  E(RB3LYP) =  -1714.18504398     A.U. after   12 cycles
 SCF Done:  E(RB3LYP) =  -1714.18458603     A.U. after   12 cycles
 SCF Done:  E(RB3LYP) =  -1714.18641579     A.U. after   12 cycles
 SCF Done:  E(RB3LYP) =  -1714.18705428     A.U. after   12 cycles
 SCF Done:  E(RB3LYP) =  -1714.19209259     A.U. after   10 cycles
 SCF Done:  E(RB3LYP) =  -1714.19209744     A.U. after   10 cycles
 SCF Done:  E(RB3LYP) =  -1714.19209794     A.U. after    9 cycles
 SCF Done:  E(RB3LYP) =  -1714.19209862     A.U. after    9 cycles
 SCF Done:  E(RB3LYP) =  -1714.19209925     A.U. after    8 cycles
 SCF Done:  E(RB3LYP) =  -1714.19209956     A.U. after    9 cycles
 SCF Done:  E(RB3LYP) =  -1714.19209967     A.U. after    8 cycles
 SCF Done:  E(RB3LYP) =  -1714.19209975     A.U. after    7 cycles
 SCF Done:  E(RB3LYP) =  -1714.19209982     A.U. after    8 cycles
 SCF Done:  E(RB3LYP) =  -1714.19209984     A.U. after    8 cycles
 Optimization completed.
    -- Stationary point found.

                         Standard orientation:
 ---------------------------------------------------------------------
 Center     Atomic      Atomic             Coordinates (Angstroms)
 Number     Number       Type             X           Y           Z
 ---------------------------------------------------------------------
      1         78           0        0.068270   -1.552661   -0.004628
      2          7           0       -1.376361   -0.131091    0.056016
      3          6           0       -1.718051    0.873924   -0.720707
      4          6           0       -3.367931    0.519593    0.774621
      5          6           0       -2.992691    1.330031   -0.277347
      6          8           0       -2.374605   -0.335267    0.998107
      7          6           0       -4.572960    0.407731    1.612918
      8          1           0       -4.405884   -0.293848    2.433206
      9          1           0       -4.857367    1.386725    2.008964
     10          1           0       -5.415994    0.062030    1.003326
     11          6           0        0.817398    1.160567    2.095399
     12          1           0        1.469724    1.359199    2.950315
     13          1           0        0.207646    2.060108    1.960149
     14          1           0        0.179111    0.304603    2.317186
     15          7           0       -3.769417    2.376975   -0.845248
     16          8           0       -3.252068    3.072003   -1.712909
     17          8           0       -4.917343    2.526871   -0.437741
     18          7           0        1.464693   -0.132595    0.102203
     19          6           0        1.639802    0.910784    0.887848
     20          6           0        3.143736    1.010529   -0.794852
     21          6           0        2.714229    1.669192    0.339493
     22          8           0        2.384179   -0.075021   -0.938145
     23          6           0        4.198369    1.253410   -1.793882
     24          1           0        4.094455    2.257210   -2.216807
     25          1           0        5.182273    1.217268   -1.313329
     26          1           0        4.151738    0.503276   -2.586217
     27          6           0       -0.881516    1.344710   -1.849443
     28          1           0       -0.496093    2.348737   -1.641708
     29          1           0       -0.056303    0.657458   -2.039405
     30          1           0       -1.493692    1.434946   -2.751019
     31          7           0        3.258368    2.884246    0.852250
     32          8           0        2.727170    3.382354    1.836602
     33          8           0        4.228028    3.361860    0.273056
     34         17           0        1.693361   -3.214230   -0.080069
     35          1           0       -1.587031   -3.381083    0.705286
     36          8           0       -1.413875   -2.974213   -0.167206
     37          1           0       -1.059963   -3.701461   -0.722726
 ---------------------------------------------------------------------

 The electronic state is 1-A.
 Alpha  occ. eigenvalues -- -101.60683 -19.42852 -19.42116 -19.39234 -19.30541
 Alpha  occ. eigenvalues --  -19.30482 -19.30163 -19.30079 -14.70553 -14.70179
 Alpha  occ. eigenvalues --  -14.60442 -14.60198 -10.45084 -10.44496 -10.42783
 Alpha  occ. eigenvalues --  -10.42462 -10.39988 -10.39472 -10.33977 -10.33662
 Alpha  occ. eigenvalues --  -10.33606 -10.32861  -9.53653  -7.29809  -7.29097
 Alpha  occ. eigenvalues --   -7.29084  -4.11104  -2.37122  -2.36425  -2.32160
 Alpha  occ. eigenvalues --   -1.36224  -1.35876  -1.34997  -1.34200  -1.24751
 Alpha  occ. eigenvalues --   -1.18340  -1.18064  -1.08767  -1.08109  -1.01544
 Alpha  occ. eigenvalues --   -1.00946  -0.91804  -0.91171  -0.89602  -0.89052
 Alpha  occ. eigenvalues --   -0.88835  -0.86328  -0.85706  -0.77598  -0.76992
 Alpha  occ. eigenvalues --   -0.75702  -0.74653  -0.74169  -0.69441  -0.68950
 Alpha  occ. eigenvalues --   -0.68792  -0.68016  -0.67374  -0.65807  -0.65552
 Alpha  occ. eigenvalues --   -0.65200  -0.64049  -0.63302  -0.62815  -0.60853
 Alpha  occ. eigenvalues --   -0.60039  -0.59174  -0.58678  -0.58504  -0.58220
 Alpha  occ. eigenvalues --   -0.57751  -0.57541  -0.56730  -0.56185  -0.55778
 Alpha  occ. eigenvalues --   -0.55431  -0.54848  -0.53926  -0.53112  -0.50586
 Alpha  occ. eigenvalues --   -0.48207  -0.46731  -0.46549  -0.46175  -0.45048
 Alpha  occ. eigenvalues --   -0.43818  -0.43708  -0.43444  -0.43384  -0.43095
 Alpha  occ. eigenvalues --   -0.41898  -0.41696  -0.41512  -0.40826  -0.38996
 Alpha  occ. eigenvalues --   -0.38017
 Alpha virt. eigenvalues --   -0.21592  -0.20989  -0.20942  -0.19465  -0.18589
 Alpha virt. eigenvalues --   -0.15098  -0.12847  -0.11142  -0.09454  -0.08942
 Alpha virt. eigenvalues --   -0.08761  -0.08190  -0.07184  -0.05851  -0.04674

 Mulliken charges:
               1
     1  Pt   0.285647
     2  N   -0.308990
     3  C    0.387538
     4  C    0.454368
     5  C    0.087786
     6  O   -0.303029
     7  C   -0.531259
     8  H    0.210240
     9  H    0.238143
    10  H    0.238751
    11  C   -0.547162
    12  H    0.242224
    13  H    0.220683
    14  H    0.225379
    15  N    0.357747
    16  O   -0.359148
    17  O   -0.358200
    18  N   -0.280549
    19  C    0.393826
    20  C    0.454473
    21  C    0.081348
    22  O   -0.281620
    23  C   -0.530627
    24  H    0.231932
    25  H    0.241661
    26  H    0.219348
    27  C   -0.553125
    28  H    0.225547
    29  H    0.224397
    30  H    0.240553
    31  N    0.361685
    32  O   -0.362157
    33  O   -0.357725
    34  Cl  -0.153572
    35  H    0.518717
    36  O   -0.738455
    37  H    0.523622
 Sum of Mulliken charges =   1.00000

 Dipole moment (field-independent basis, Debye):
    X=             -3.8212    Y=             -2.3772    Z=              0.3655  Tot=              4.5151
 Quadrupole moment (field-independent basis, Debye-Ang):
   XX=           -118.4507   YY=           -149.2480   ZZ=           -138.5028
   XY=             19.3353   XZ=            -21.3621   YZ=             -2.7670

 ESP charges:
               1
     1  Pt   0.144000
     2  N    0.138359
     3  C    0.181004
     4  C    0.365824
     5  C   -0.242684
     6  O   -0.157766
     7  C   -0.414345
     8  H    0.162786
     9  H    0.181497
    10  H    0.179597
    11  C   -0.262048
    12  H    0.170939
    13  H    0.124784
    14  H    0.037025
    15  N    0.722348
    16  O   -0.362878
    17  O   -0.368265
    18  N   -0.101184
    19  C    0.316416
    20  C    0.491061
    21  C   -0.318067
    22  O   -0.141008
    23  C   -0.437059
    24  H    0.168457
    25  H    0.191071
    26  H    0.163557
    27  C   -0.361079
    28  H    0.154432
    29  H    0.091186
    30  H    0.190707
    31  N    0.713606
    32  O   -0.368048
    33  O   -0.363793
    34  Cl  -0.288069
    35  H    0.429906
    36  O   -0.579522
    37  H    0.447257
 Sum of ESP charges =   1.00000

 Normal termination of Gaussian 16 at Fri Aug  1 16:50:33 2025.
