 Gaussian 16, Revision C.01,
 Gaussian 16:  ES64L-G16RevC.01  3-Jul-2019

 ------------------------------------------------------------------
 # B3LYP/genecp Geom=PrintInputOrient Integral=(Grid=UltraFine) Opt
 ------------------------------------------------------------------

 ---
 CLR
 ---
 Symbolic Z-matrix:
 Charge =  1 Multiplicity = 1

 SCF Done:  E(RB3LYP) =  -1714.17279169     A.U. after   21 cycles
 SCF Done:  E(RB3LYP) =  -1714.18673583     A.U. after   15 cycles
 SCF Done:  E(RB3LYP) =  -1714.17714861     A.U. after   16 cycles
 SCF Done:  E(RB3LYP) =  -1714.18940203     A.U. after   15 cycles
 SCF Done:  E(RB3LYP) =  -1714.18685911     A.U. after   15 cycles
 SCF Done:  E(RB3LYP) =  -1714.19001624     A.U. after   13 cycles
 SCF Done:  E(RB3LYP) =  -1714.19285469     A.U. after   14 cycles
 SCF Done:  E(RB3LYP) =  -1714.18489030     A.U. after   14 cycles
 SCF Done:  E(RB3LYP) =  -1714.19693084     A.U. after   14 cycles
 SCF Done:  E(RB3LYP) =  -1714.20008823     A.U. after   16 cycles
 SCF Done:  E(RB3LYP) =  -1714.20360123     A.U. after   10 cycles
 SCF Done:  E(RB3LYP) =  -1714.20360508     A.U. after   10 cycles
 SCF Done:  E(RB3LYP) =  -1714.20360691     A.U. after   10 cycles
 SCF Done:  E(RB3LYP) =  -1714.20360921     A.U. after    9 cycles
 SCF Done:  E(RB3LYP) =  -1714.20361155     A.U. after    9 cycles
 SCF Done:  E(RB3LYP) =  -1714.20361248     A.U. after    9 cycles
 SCF Done:  E(RB3LYP) =  -1714.20361276     A.U. after    9 cycles
 SCF Done:  E(RB3LYP) =  -1714.20361291     A.U. after    8 cycles
 SCF Done:  E(RB3LYP) =  -1714.20361293     A.U. after    7 cycles
 SCF Done:  E(RB3LYP) =  -1714.20361295     A.U. after    7 cycles
 Optimization completed.
    -- Stationary point found.

                         Standard orientation:
 ---------------------------------------------------------------------
 Center     Atomic      Atomic             Coordinates (Angstroms)
 Number     Number       Type             X           Y           Z
 ---------------------------------------------------------------------
      1         78           0        0.068570   -1.408742    0.014706
      2          7           0       -1.537066   -0.123735    0.186509
      3          6           0       -2.562303    0.191929   -0.586154
      4          6           0       -2.748133    1.365313    1.331058
      5          6           0       -3.357034    1.139707    0.119019
      6          8           0       -1.642210    0.604381    1.382654
      7          6           0       -3.049374    2.216975    2.507540
      8          1           0       -2.284057    2.086025    3.275389
      9          1           0       -3.100660    3.268265    2.207098
     10          1           0       -4.032067    1.958804    2.914891
     11          6           0        2.768206   -0.123257    1.918841
     12          1           0        3.743115   -0.613295    1.833298
     13          1           0        2.864820    0.651697    2.683921
     14          1           0        2.021867   -0.861233    2.215933
     15          7           0       -4.574504    1.760575   -0.340250
     16          8           0       -4.979772    1.435169   -1.453283
     17          8           0       -5.103864    2.564699    0.423370
     18          7           0        1.357883    0.111384   -0.097174
     19          6           0        2.403853    0.495925    0.613965
     20          6           0        2.316513    1.750719   -1.261139
     21          6           0        3.033776    1.550600   -0.105661
     22          8           0        1.292438    0.880258   -1.265576
     23          6           0        2.437933    2.667418   -2.420475
     24          1           0        2.425819    3.707913   -2.081758
     25          1           0        3.399680    2.509362   -2.919245
     26          1           0        1.624054    2.493442   -3.127383
     27          6           0       -2.753116   -0.398011   -1.942141
     28          1           0       -2.838033    0.398864   -2.686283
     29          1           0       -1.919682   -1.055811   -2.196868
     30          1           0       -3.690672   -0.961386   -1.976612
     31          7           0        4.207894    2.287629    0.291921
     32          8           0        4.722975    1.980738    1.363484
     33          8           0        4.591835    3.164489   -0.478709
     34         17           0        1.769741   -2.955047   -0.221488
     35          1           0       -1.484870   -3.299932    0.988201
     36          8           0       -1.212400   -3.094749    0.073321
     37          1           0       -0.636768   -3.839783   -0.210588
 ---------------------------------------------------------------------

 The electronic state is 1-A.
 Alpha  occ. eigenvalues -- -101.61604 -19.41879 -19.41758 -19.38348 -19.30544
 Alpha  occ. eigenvalues --  -19.30504 -19.30136 -19.30084 -14.70389 -14.69983
 Alpha  occ. eigenvalues --  -14.60018 -14.59544 -10.44467 -10.44178 -10.42184
 Alpha  occ. eigenvalues --  -10.41999 -10.39377 -10.39031 -10.33293 -10.32988
 Alpha  occ. eigenvalues --  -10.32929 -10.32254  -9.54606  -7.30746  -7.30069
 Alpha  occ. eigenvalues --   -7.30024  -4.10895  -2.36842  -2.36243  -2.31923
 Alpha  occ. eigenvalues --   -1.35605  -1.35207  -1.33155  -1.33061  -1.23671
 Alpha  occ. eigenvalues --   -1.18370  -1.17967  -1.07461  -1.07358  -1.00463
 Alpha  occ. eigenvalues --   -1.00220  -0.90560  -0.90275  -0.89987  -0.88450
 Alpha  occ. eigenvalues --   -0.88091  -0.85244  -0.84992  -0.76354  -0.76247
 Alpha  occ. eigenvalues --   -0.74955  -0.73878  -0.73724  -0.68691  -0.68525
 Alpha  occ. eigenvalues --   -0.67770  -0.67290  -0.66325  -0.65075  -0.64662
 Alpha  occ. eigenvalues --   -0.64280  -0.63319  -0.63059  -0.62592  -0.60028
 Alpha  occ. eigenvalues --   -0.59536  -0.58277  -0.57956  -0.57477  -0.57128
 Alpha  occ. eigenvalues --   -0.57037  -0.56754  -0.55858  -0.55584  -0.55105
 Alpha  occ. eigenvalues --   -0.54766  -0.54297  -0.53252  -0.52610  -0.50616
 Alpha  occ. eigenvalues --   -0.47815  -0.47391  -0.46308  -0.45494  -0.44253
 Alpha  occ. eigenvalues --   -0.43424  -0.43375  -0.43317  -0.42994  -0.42916
 Alpha  occ. eigenvalues --   -0.42133  -0.41966  -0.41646  -0.40585  -0.39655
 Alpha  occ. eigenvalues --   -0.38623
 Alpha virt. eigenvalues --   -0.21682  -0.21121  -0.20708  -0.18864  -0.18295
 Alpha virt. eigenvalues --   -0.14880  -0.13018  -0.10942  -0.08952  -0.08856
 Alpha virt. eigenvalues --   -0.08356  -0.07891  -0.07193  -0.06018  -0.04516

 Mulliken charges:
               1
     1  Pt   0.274853
     2  N   -0.301308
     3  C    0.386877
     4  C    0.446082
     5  C    0.084640
     6  O   -0.306295
     7  C   -0.525762
     8  H    0.209512
     9  H    0.233598
    10  H    0.235852
    11  C   -0.533225
    12  H    0.242429
    13  H    0.224793
    14  H    0.233769
    15  N    0.367270
    16  O   -0.355682
    17  O   -0.357354
    18  N   -0.289579
    19  C    0.406774
    20  C    0.451951
    21  C    0.080458
    22  O   -0.300905
    23  C   -0.525966
    24  H    0.232049
    25  H    0.239538
    26  H    0.208655
    27  C   -0.535747
    28  H    0.229426
    29  H    0.226968
    30  H    0.231929
    31  N    0.368378
    32  O   -0.353903
    33  O   -0.358024
    34  Cl  -0.166157
    35  H    0.511754
    36  O   -0.727434
    37  H    0.509786
 Sum of Mulliken charges =   1.00000

 Dipole moment (field-independent basis, Debye):
    X=             -3.5543    Y=             -0.2189    Z=              1.5832  Tot=              3.8971
 Quadrupole moment (field-independent basis, Debye-Ang):
   XX=           -148.5171   YY=           -128.1225   ZZ=           -131.1308
   XY=             11.2677   XZ=            -14.5185   YZ=             -5.7678

 Normal termination of Gaussian 16 at Fri Aug  1 16:49:35 2025.
