 Gaussian 16, Revision C.01,
 Gaussian 16:  ES64L-G16RevC.01  3-Jul-2019

 ----------------------------------------------------------------------
 # B3LYP/genecp Freq Geom=AllCheckpoint Guess=Read Integral=(Grid=Ultra
 Fine) IOp(7/33=1)
 ----------------------------------------------------------------------

 Structure from the checkpoint file:  "CIX_small_opt.chk"
 ---
 CLR
 ---
 Charge =  1 Multiplicity = 1

                         Standard orientation:
 ---------------------------------------------------------------------
 Center     Atomic      Atomic             Coordinates (Angstroms)
 Number     Number       Type             X           Y           Z
 ---------------------------------------------------------------------
      1         78           0        0.068570   -1.408742    0.014706
      2          7           0       -1.537066   -0.123735    0.186509
      3          6           0       -2.562303    0.191929   -0.586154
      4          6           0       -2.748133    1.365313    1.331058
      5          6           0       -3.357034    1.139707    0.119019
      6          8           0       -1.642210    0.604381    1.382654
      7          6           0       -3.049374    2.216975    2.507540
      8          1           0       -2.284057    2.086025    3.275389
      9          1           0       -3.100660    3.268265    2.207098
     10          1           0       -4.032067    1.958804    2.914891
     11          6           0        2.768206   -0.123257    1.918841
     12          1           0        3.743115   -0.613295    1.833298
     13          1           0        2.864820    0.651697    2.683921
     14          1           0        2.021867   -0.861233    2.215933
     15          7           0       -4.574504    1.760575   -0.340250
     16          8           0       -4.979772    1.435169   -1.453283
     17          8           0       -5.103864    2.564699    0.423370
     18          7           0        1.357883    0.111384   -0.097174
     19          6           0        2.403853    0.495925    0.613965
     20          6           0        2.316513    1.750719   -1.261139
     21          6           0        3.033776    1.550600   -0.105661
     22          8           0        1.292438    0.880258   -1.265576
     23          6           0        2.437933    2.667418   -2.420475
     24          1           0        2.425819    3.707913   -2.081758
     25          1           0        3.399680    2.509362   -2.919245
     26          1           0        1.624054    2.493442   -3.127383
     27          6           0       -2.753116   -0.398011   -1.942141
     28          1           0       -2.838033    0.398864   -2.686283
     29          1           0       -1.919682   -1.055811   -2.196868
     30          1           0       -3.690672   -0.961386   -1.976612
     31          7           0        4.207894    2.287629    0.291921
     32          8           0        4.722975    1.980738    1.363484
     33          8           0        4.591835    3.164489   -0.478709
     34         17           0        1.769741   -2.955047   -0.221488
     35          1           0       -1.484870   -3.299932    0.988201
     36          8           0       -1.212400   -3.094749    0.073321
     37          1           0       -0.636768   -3.839783   -0.210588
 ---------------------------------------------------------------------

 SCF Done:  E(RB3LYP) =  -1714.20361295     A.U. after    1 cycles

 The electronic state is 1-A.
 Alpha  occ. eigenvalues -- -101.61604 -19.41879 -19.41758 -19.38348 -19.30544
 Alpha  occ. eigenvalues --  -19.30504 -19.30136 -19.30084 -14.70389 -14.69983
 Alpha  occ. eigenvalues --  -14.60018 -14.59544 -10.44467 -10.44178 -10.42184
 Alpha  occ. eigenvalues --  -10.41999 -10.39377 -10.39031 -10.33293 -10.32988
 Alpha  occ. eigenvalues --  -10.32929 -10.32254  -9.54606  -7.30746  -7.30069
 Alpha  occ. eigenvalues --   -7.30024  -4.10895  -2.36842  -2.36243  -2.31923
 Alpha  occ. eigenvalues --   -1.35605  -1.35207  -1.33155  -1.33061  -1.23671
 Alpha  occ. eigenvalues --   -1.18370  -1.17967  -1.07461  -1.07358  -1.00463
 Alpha  occ. eigenvalues --   -1.00220  -0.90560  -0.90275  -0.89987  -0.88450
 Alpha  occ. eigenvalues --   -0.88091  -0.85244  -0.84992  -0.76354  -0.76247
 Alpha  occ. eigenvalues --   -0.74955  -0.73878  -0.73724  -0.68691  -0.68525
 Alpha  occ. eigenvalues --   -0.67770  -0.67290  -0.66325  -0.65075  -0.64662
 Alpha  occ. eigenvalues --   -0.64280  -0.63319  -0.63059  -0.62592  -0.60028
 Alpha  occ. eigenvalues --   -0.59536  -0.58277  -0.57956  -0.57477  -0.57128
 Alpha  occ. eigenvalues --   -0.57037  -0.56754  -0.55857  -0.55584  -0.55105
 Alpha  occ. eigenvalues --   -0.54766  -0.54297  -0.53252  -0.52610  -0.50616
 Alpha  occ. eigenvalues --   -0.47815  -0.47391  -0.46308  -0.45494  -0.44253
 Alpha  occ. eigenvalues --   -0.43424  -0.43375  -0.43317  -0.42994  -0.42916
 Alpha  occ. eigenvalues --   -0.42133  -0.41966  -0.41646  -0.40585  -0.39655
 Alpha  occ. eigenvalues --   -0.38623
 Alpha virt. eigenvalues --   -0.21682  -0.21121  -0.20708  -0.18864  -0.18295
 Alpha virt. eigenvalues --   -0.14880  -0.13018  -0.10942  -0.08952  -0.08856
 Alpha virt. eigenvalues --   -0.08356  -0.07891  -0.07193  -0.06018  -0.04516

 Mulliken charges:
               1
     1  Pt   0.274853
     2  N   -0.301305
     3  C    0.386876
     4  C    0.446081
     5  C    0.084640
     6  O   -0.306295
     7  C   -0.525763
     8  H    0.209512
     9  H    0.233598
    10  H    0.235852
    11  C   -0.533225
    12  H    0.242429
    13  H    0.224793
    14  H    0.233769
    15  N    0.367269
    16  O   -0.355681
    17  O   -0.357355
    18  N   -0.289578
    19  C    0.406774
    20  C    0.451951
    21  C    0.080458
    22  O   -0.300905
    23  C   -0.525966
    24  H    0.232049
    25  H    0.239538
    26  H    0.208655
    27  C   -0.535747
    28  H    0.229426
    29  H    0.226968
    30  H    0.231929
    31  N    0.368378
    32  O   -0.353903
    33  O   -0.358024
    34  Cl  -0.166157
    35  H    0.511754
    36  O   -0.727434
    37  H    0.509786
 Sum of Mulliken charges =   1.00000

 Dipole moment (field-independent basis, Debye):
    X=             -3.5543    Y=             -0.2189    Z=              1.5832  Tot=              3.8971
 Quadrupole moment (field-independent basis, Debye-Ang):
   XX=           -148.5172   YY=           -128.1225   ZZ=           -131.1308
   XY=             11.2677   XZ=            -14.5185   YZ=             -5.7678

  Exact polarizability:     236.001     -10.138     203.560      12.859       0.710     189.569
 Approx polarizability:     327.307     -20.753     304.266      36.547       1.419     349.002

                      1                      2                      3
                      A                      A                      A
 Frequencies --     15.8401                18.7820                20.9795
 Red. masses --      5.3308                 6.0999                 7.2339
 Frc consts  --      0.0008                 0.0013                 0.0019
 IR Inten    --      0.4498                 0.0822                 0.3879

                      4                      5                      6
                      A                      A                      A
 Frequencies --     46.0925                57.0294                58.3656
 Red. masses --      9.1301                 4.4414                 4.6269
 Frc consts  --      0.0114                 0.0085                 0.0093
 IR Inten    --      1.2575                 0.0412                 0.1680

                      7                      8                      9
                      A                      A                      A
 Frequencies --     63.5269                88.0886                98.7127
 Red. masses --     11.9123                 5.0028                 1.1646
 Frc consts  --      0.0283                 0.0229                 0.0067
 IR Inten    --      2.5214                 0.9288                 0.3711

                     10                     11                     12
                      A                      A                      A
 Frequencies --     99.4084               108.3867               121.5919
 Red. masses --      1.1877                 4.8162                 3.8930
 Frc consts  --      0.0069                 0.0333                 0.0339
 IR Inten    --      0.4446                 6.8177                 7.9503

                     13                     14                     15
                      A                      A                      A
 Frequencies --    136.1609               141.9628               148.8117
 Red. masses --      1.8826                 2.2323                 1.1323
 Frc consts  --      0.0206                 0.0265                 0.0148
 IR Inten    --      0.4057                 1.0065                 2.1383

                     16                     17                     18
                      A                      A                      A
 Frequencies --    164.2616               169.7871               172.3345
 Red. masses --      5.2540                 3.9655                 4.9456
 Frc consts  --      0.0835                 0.0674                 0.0865
 IR Inten    --      0.8997                 4.7220                 1.2442

                     19                     20                     21
                      A                      A                      A
 Frequencies --    182.0150               194.4708               208.1272
 Red. masses --      6.8792                 5.7790                 2.7640
 Frc consts  --      0.1343                 0.1288                 0.0705
 IR Inten    --     13.4313                 0.8553                15.8920

                     22                     23                     24
                      A                      A                      A
 Frequencies --    214.2024               223.7699               225.7404
 Red. masses --      3.8124                 1.6675                 2.8583
 Frc consts  --      0.1031                 0.0492                 0.0858
 IR Inten    --      1.6739                33.4667                20.6812

                     25                     26                     27
                      A                      A                      A
 Frequencies --    259.2515               267.5725               281.6926
 Red. masses --      8.9373                 7.8475                 3.0507
 Frc consts  --      0.3539                 0.3310                 0.1426
 IR Inten    --      2.6965                 0.5949                 6.5657

                     28                     29                     30
                      A                      A                      A
 Frequencies --    286.2064               354.3953               359.1877
 Red. masses --      3.2164                10.8472                 5.5865
 Frc consts  --      0.1552                 0.8027                 0.4247
 IR Inten    --      6.4202                23.8027                 6.8426

                     31                     32                     33
                      A                      A                      A
 Frequencies --    367.6686               386.2022               389.2119
 Red. masses --      4.6396                 6.2458                 6.4842
 Frc consts  --      0.3695                 0.5489                 0.5787
 IR Inten    --      1.1908                 0.0297                 0.1686

                     34                     35                     36
                      A                      A                      A
 Frequencies --    422.0755               458.4135               466.3010
 Red. masses --      7.1881                 7.5575                 7.3621
 Frc consts  --      0.7545                 0.9357                 0.9432
 IR Inten    --     10.8560                 2.6349                 0.3699

                     37                     38                     39
                      A                      A                      A
 Frequencies --    581.5843               584.3175               607.8244
 Red. masses --      4.8490                 4.7360                 4.6064
 Frc consts  --      0.9663                 0.9527                 1.0027
 IR Inten    --      3.1363                 4.2073                 2.4022

                     40                     41                     42
                      A                      A                      A
 Frequencies --    611.9713               624.2861               632.0494
 Red. masses --      4.5796                 6.0954                 6.1566
 Frc consts  --      1.0105                 1.3996                 1.4491
 IR Inten    --      7.8843                 0.4876                 0.1563

                     43                     44                     45
                      A                      A                      A
 Frequencies --    656.9966               659.8075               722.3016
 Red. masses --      5.0108                 5.0266                 1.1923
 Frc consts  --      1.2743                 1.2893                 0.3665
 IR Inten    --      0.3123                 0.3612               249.5790

                     46                     47                     48
                      A                      A                      A
 Frequencies --    773.8610               774.2394               779.6137
 Red. masses --      9.4517                 9.4191                 5.6133
 Frc consts  --      3.3349                 3.3267                 2.0102
 IR Inten    --      7.5572                 8.2566                10.6649

                     49                     50                     51
                      A                      A                      A
 Frequencies --    783.8370               815.7704               843.9756
 Red. masses --      5.5596                 1.1158                11.9145
 Frc consts  --      2.0126                 0.4375                 5.0002
 IR Inten    --      7.0089                68.0925                95.3483

                     52                     53                     54
                      A                      A                      A
 Frequencies --    845.9064               959.8529               975.0248
 Red. masses --     11.5157                 4.5772                 3.2913
 Frc consts  --      4.8550                 2.4846                 1.8435
 IR Inten    --     47.3946                 9.8224                 7.0973

                     55                     56                     57
                      A                      A                      A
 Frequencies --   1011.9251              1018.2604              1057.0774
 Red. masses --      2.1103                 2.5496                 1.6552
 Frc consts  --      1.2732                 1.5575                 1.0897
 IR Inten    --     21.6396                18.5514                 3.3893

                     58                     59                     60
                      A                      A                      A
 Frequencies --   1062.3535              1063.0911              1063.7254
 Red. masses --      1.5733                 1.5235                 1.5791
 Frc consts  --      1.0462                 1.0145                 1.0527
 IR Inten    --      1.6178                 2.6353                 2.9866

                     61                     62                     63
                      A                      A                      A
 Frequencies --   1070.2306              1070.9784              1098.7474
 Red. masses --      1.5547                 1.5520                 5.9918
 Frc consts  --      1.0492                 1.0488                 4.2619
 IR Inten    --      4.5752                 4.8443                 7.6374

                     64                     65                     66
                      A                      A                      A
 Frequencies --   1104.4699              1209.4029              1211.0442
 Red. masses --      6.4872                 7.4076                 7.4407
 Frc consts  --      4.6625                 6.3837                 6.4296
 IR Inten    --      5.4755                25.3089                11.1712

                     67                     68                     69
                      A                      A                      A
 Frequencies --   1304.9759              1305.5293              1406.7382
 Red. masses --      5.5698                 5.5925                 8.4526
 Frc consts  --      5.5885                 5.6160                 9.8552
 IR Inten    --      8.8239                15.9757               264.3602

                     70                     71                     72
                      A                      A                      A
 Frequencies --   1408.2365              1433.9323              1434.8570
 Red. masses --      7.6389                 1.2895                 1.2809
 Frc consts  --      8.9255                 1.5622                 1.5537
 IR Inten    --     63.0673                83.0662                22.3976

                     73                     74                     75
                      A                      A                      A
 Frequencies --   1437.9999              1438.7214              1472.2784
 Red. masses --      1.2296                 1.2480                 1.5036
 Frc consts  --      1.4980                 1.5220                 1.9203
 IR Inten    --     30.7948                20.9581               128.0381

                     76                     77                     78
                      A                      A                      A
 Frequencies --   1473.4836              1480.3619              1481.2427
 Red. masses --      1.5100                 1.4749                 1.7579
 Frc consts  --      1.9316                 1.9044                 2.2724
 IR Inten    --    107.4171                 6.4853                12.9035

                     79                     80                     81
                      A                      A                      A
 Frequencies --   1483.9766              1484.5714              1489.4978
 Red. masses --      1.0427                 1.0421                 1.0934
 Frc consts  --      1.3529                 1.3533                 1.4293
 IR Inten    --     13.6153                13.7597                 8.1233

                     82                     83                     84
                      A                      A                      A
 Frequencies --   1491.2508              1510.2309              1511.3017
 Red. masses --      1.0502                 1.8619                 1.9222
 Frc consts  --      1.3761                 2.5020                 2.5868
 IR Inten    --      9.8866                17.7092                11.6829

                     85                     86                     87
                      A                      A                      A
 Frequencies --   1543.6108              1547.8089              1622.2013
 Red. masses --      3.3209                 3.8779                 8.3327
 Frc consts  --      4.6621                 5.4737                12.9196
 IR Inten    --     24.7241                16.4036                49.7527

                     88                     89                     90
                      A                      A                      A
 Frequencies --   1623.3959              1668.2263              1669.7945
 Red. masses --      8.4117                12.6177                12.5278
 Frc consts  --     13.0612                20.6890                20.5803
 IR Inten    --     34.2641               200.0283               381.3545

                     91                     92                     93
                      A                      A                      A
 Frequencies --   1686.3423              3077.0093              3077.2844
 Red. masses --      1.0775                 1.0353                 1.0353
 Frc consts  --      1.8053                 5.7751                 5.7761
 IR Inten    --     96.5475                 4.6299                 4.7305

                     94                     95                     96
                      A                      A                      A
 Frequencies --   3080.0524              3083.3749              3140.8834
 Red. masses --      1.0351                 1.0354                 1.1006
 Frc consts  --      5.7854                 5.8000                 6.3971
 IR Inten    --      2.5094                 3.7319                 1.4348

                     97                     98                     99
                      A                      A                      A
 Frequencies --   3141.6511              3147.2206              3149.6103
 Red. masses --      1.1006                 1.1007                 1.1006
 Frc consts  --      6.4002                 6.4236                 6.4329
 IR Inten    --      1.7234                 0.5050                 1.3168

                    100                    101                    102
                      A                      A                      A
 Frequencies --   3170.8452              3173.7345              3174.0603
 Red. masses --      1.1055                 1.1053                 1.1053
 Frc consts  --      6.5490                 6.5593                 6.5606
 IR Inten    --      4.6927                 3.7072                 3.9734

                    103                    104                    105
                      A                      A                      A
 Frequencies --   3180.4110              3573.1913              3721.8662
 Red. masses --      1.1050                 1.0520                 1.0754
 Frc consts  --      6.5853                 7.9140                 8.7765
 IR Inten    --      3.6001               119.9752               154.3688

 - Thermochemistry -
 -------------------
 Temperature   298.150 Kelvin.  Pressure   1.00000 Atm.
 Atom     1 has atomic number 78 and mass 194.96480

 Molecular mass:   532.01990 amu.
 Principal axes and moments of inertia in atomic units:
                           1         2         3
     Eigenvalues --  7707.32332********************
           X            0.99995   0.00969  -0.00315
           Y           -0.00970   0.99995  -0.00296
           Z            0.00312   0.00299   0.99999
 This molecule is an asymmetric top.
 Rotational symmetry number  1.
 Warning -- assumption of classical behavior for rotation
           may cause significant error
 Rotational temperatures (Kelvin)      0.01124     0.00634     0.00486
 Rotational constants (GHZ):           0.23416     0.13203     0.10119
 Zero-point vibrational energy     692954.3 (Joules/Mol)
                                  165.62006 (Kcal/Mol)
 Warning -- explicit consideration of  40 degrees of freedom as
           vibrations may cause significant error
 Vibrational temperatures:     22.79    27.02    30.18    66.32    82.05
          (Kelvin)             83.98    91.40   126.74   142.03   143.03
                              155.94   174.94   195.91   204.25   214.11
                              236.34   244.29   247.95   261.88   279.80
                              299.45   308.19   321.96   324.79   373.01
                              384.98   405.29   411.79   509.90   516.79
                              528.99   555.66   559.99   607.27   659.55
                              670.90   836.77   840.70   874.52   880.49
                              898.21   909.38   945.27   949.32  1039.23
                             1113.41  1113.96  1121.69  1127.77  1173.71
                             1214.29  1217.07  1381.01  1402.84  1455.93
                             1465.05  1520.90  1528.49  1529.55  1530.46
                             1539.82  1540.90  1580.85  1589.09  1740.06
                             1742.42  1877.57  1878.37  2023.98  2026.14
                             2063.11  2064.44  2068.96  2070.00  2118.28
                             2120.01  2129.91  2131.18  2135.11  2135.97
                             2143.06  2145.58  2172.89  2174.43  2220.91
                             2226.95  2333.99  2335.70  2400.21  2402.46
                             2426.27  4427.13  4427.53  4431.51  4436.29
                             4519.03  4520.14  4528.15  4531.59  4562.14
                             4566.30  4566.76  4575.90  5141.03  5354.94

 Zero-point correction=                           0.263932 (Hartree/Particle)
 Thermal correction to Energy=                    0.290197
 Thermal correction to Enthalpy=                  0.291142
 Thermal correction to Gibbs Free Energy=         0.203255
 Sum of electronic and zero-point Energies=          -1713.939681
 Sum of electronic and thermal Energies=             -1713.913416
 Sum of electronic and thermal Enthalpies=           -1713.912471
 Sum of electronic and thermal Free Energies=        -1714.000358

                     E (Thermal)             CV                S
                      KCal/Mol        Cal/Mol-Kelvin    Cal/Mol-Kelvin
 Total                  182.102             90.144            184.972
 Electronic               0.000              0.000              0.000
 Translational            0.889              2.981             44.700
 Rotational               0.889              2.981             35.884
 Vibrational            180.324             84.182            104.388
 Vibration     1          0.593              1.986              7.097
 Vibration     2          0.593              1.986              6.759
 Vibration     3          0.593              1.986              6.539
 Vibration     4          0.595              1.979              4.978
 Vibration     5          0.596              1.975              4.557
 Vibration     6          0.596              1.974              4.512
 Vibration     7          0.597              1.972              4.345
 Vibration     8          0.601              1.958              3.702
 Vibration     9          0.604              1.950              3.480
 Vibration    10          0.604              1.950              3.466
 Vibration    11          0.606              1.943              3.298
 Vibration    12          0.609              1.931              3.075
 Vibration    13          0.614              1.917              2.857
 Vibration    14          0.615              1.911              2.777
 Vibration    15          0.618              1.904              2.687
 Vibration    16          0.623              1.886              2.500
 Vibration    17          0.625              1.880              2.438
 Vibration    18          0.626              1.877              2.410
 Vibration    19          0.630              1.864              2.308
 Vibration    20          0.635              1.848              2.185
 Vibration    21          0.641              1.828              2.060
 Vibration    22          0.644              1.819              2.008
 Vibration    23          0.649              1.805              1.928
 Vibration    24          0.650              1.802              1.913
 Vibration    25          0.668              1.747              1.667
 Vibration    26          0.673              1.733              1.612
 Vibration    27          0.681              1.708              1.523
 Vibration    28          0.684              1.699              1.496
 Vibration    29          0.730              1.566              1.147
 Vibration    30          0.734              1.556              1.126
 Vibration    31          0.740              1.539              1.090
 Vibration    32          0.755              1.500              1.015
 Vibration    33          0.757              1.493              1.003
 Vibration    34          0.784              1.422              0.885
 Vibration    35          0.816              1.342              0.771
 Vibration    36          0.824              1.325              0.748
 Vibration    37          0.938              1.071              0.482
 Vibration    38          0.941              1.065              0.477
 Vibration    39          0.967              1.015              0.436
 Vibration    40          0.971              1.007              0.430

                           ! Non-Optimized Parameters !
 Normal termination of Gaussian 16 at Fri Aug  1 16:55:00 2025.
