 Gaussian 16, Revision C.01,
 Gaussian 16:  ES64L-G16RevC.01  3-Jul-2019

 ----------------------------------------------------------------------
 # B3LYP/genecp Freq Geom=AllCheckpoint Guess=Read Integral=(Grid=Ultra
 Fine) IOp(7/33=1) scf=xqc
 ----------------------------------------------------------------------

 Structure from the checkpoint file:  "CIX_small_opt.chk"
 ---
 CLR
 ---
 Charge =  1 Multiplicity = 1

                         Standard orientation:
 ---------------------------------------------------------------------
 Center     Atomic      Atomic             Coordinates (Angstroms)
 Number     Number       Type             X           Y           Z
 ---------------------------------------------------------------------
      1         78           0        0.088794   -1.407811   -0.019219
      2          7           0       -1.545568   -0.158256    0.195995
      3          6           0       -2.498491    0.253835   -0.623385
      4          6           0       -2.867059    1.160790    1.408842
      5          6           0       -3.367452    1.101707    0.124940
      6          8           0       -1.767379    0.400306    1.449737
      7          6           0       -3.285130    1.849465    2.651210
      8          1           0       -2.589105    1.619685    3.468236
      9          1           0       -3.326198    2.936515    2.483604
     10          1           0       -4.305038    1.540603    2.926954
     11          6           0        2.772981   -0.167486    1.912774
     12          1           0        3.727015   -0.699198    1.774502
     13          1           0        2.940944    0.587364    2.693036
     14          1           0        2.005353   -0.885673    2.224621
     15          7           0       -4.549646    1.781517   -0.357098
     16          8           0       -4.847648    1.608181   -1.526268
     17          8           0       -5.148893    2.472481    0.449070
     18          7           0        1.343441    0.134834   -0.085141
     19          6           0        2.388958    0.498547    0.640078
     20          6           0        2.271851    1.827013   -1.182255
     21          6           0        3.006153    1.589570   -0.039687
     22          8           0        1.265225    0.945746   -1.208277
     23          6           0        2.378004    2.793346   -2.298716
     24          1           0        2.362322    3.822912   -1.910714
     25          1           0        3.345893    2.668450   -2.808363
     26          1           0        1.558769    2.643177   -3.013508
     27          6           0       -2.566014   -0.153189   -2.053291
     28          1           0       -2.615519    0.738858   -2.693911
     29          1           0       -1.697732   -0.766716   -2.326284
     30          1           0       -3.492981   -0.716848   -2.238015
     31          7           0        4.179791    2.325708    0.378295
     32          8           0        4.712584    1.975204    1.416341
     33          8           0        4.536127    3.238363   -0.347573
     34         17           0        1.802538   -2.917696   -0.323186
     35          1           0       -1.494699   -3.373285    0.837305
     36          8           0       -1.114260   -3.136065   -0.026217
     37          1           0       -0.473050   -3.847711   -0.246165
 ---------------------------------------------------------------------

 SCF Done:  E(RB3LYP) =  -1713.26442780     A.U. after    1 cycles

 The electronic state is 1-A.
 Alpha  occ. eigenvalues -- -101.59146 -19.40624 -19.40568 -19.36784 -19.29065
 Alpha  occ. eigenvalues --  -19.29029 -19.28687 -19.28634 -14.69652 -14.69276
 Alpha  occ. eigenvalues --  -14.59204 -14.58584 -10.44536 -10.44304 -10.42238
 Alpha  occ. eigenvalues --  -10.42102 -10.39409 -10.39105 -10.34370 -10.34079
 Alpha  occ. eigenvalues --  -10.34061 -10.33341  -9.54361  -7.31079  -7.30405
 Alpha  occ. eigenvalues --   -7.30343  -4.10789  -2.36634  -2.36023  -2.31956
 Alpha  occ. eigenvalues --   -1.35506  -1.35138  -1.32951  -1.32839  -1.21521
 Alpha  occ. eigenvalues --   -1.18201  -1.17827  -1.06641  -1.06531  -1.00025
 Alpha  occ. eigenvalues --   -0.99839  -0.90128  -0.89896  -0.89575  -0.87757
 Alpha  occ. eigenvalues --   -0.87452  -0.85110  -0.84905  -0.76584  -0.76506
 Alpha  occ. eigenvalues --   -0.74355  -0.73431  -0.73288  -0.68554  -0.68386
 Alpha  occ. eigenvalues --   -0.68247  -0.68090  -0.66439  -0.65964  -0.65439
 Alpha  occ. eigenvalues --   -0.64750  -0.63489  -0.63007  -0.62563  -0.59967
 Alpha  occ. eigenvalues --   -0.59348  -0.58379  -0.58076  -0.57465  -0.57288
 Alpha  occ. eigenvalues --   -0.57133  -0.57002  -0.55612  -0.55522  -0.55096
 Alpha  occ. eigenvalues --   -0.54762  -0.54349  -0.53255  -0.52637  -0.50652
 Alpha  occ. eigenvalues --   -0.47698  -0.47208  -0.46342  -0.45685  -0.44346
 Alpha  occ. eigenvalues --   -0.43843  -0.43746  -0.43466  -0.43441  -0.43355
 Alpha  occ. eigenvalues --   -0.42499  -0.42167  -0.42070  -0.40533  -0.39389
 Alpha  occ. eigenvalues --   -0.38395
 Alpha virt. eigenvalues --   -0.21308  -0.21018  -0.20864  -0.19087  -0.18611
 Alpha virt. eigenvalues --   -0.12830  -0.11668  -0.09633  -0.09229  -0.07736
 Alpha virt. eigenvalues --   -0.06362  -0.06036  -0.04933  -0.04638  -0.03868

 Mulliken charges:
               1
     1  Pt   0.338167
     2  N   -0.179760
     3  C    0.019050
     4  C    0.061726
     5  C    0.010475
     6  O   -0.143305
     7  C    0.116494
     8  H    0.057547
     9  H    0.085046
    10  H    0.086632
    11  C    0.125377
    12  H    0.084159
    13  H    0.069100
    14  H    0.066333
    15  N    0.254634
    16  O   -0.215536
    17  O   -0.216466
    18  N   -0.161212
    19  C    0.036852
    20  C    0.071146
    21  C    0.007048
    22  O   -0.141524
    23  C    0.116942
    24  H    0.084088
    25  H    0.090035
    26  H    0.054849
    27  C    0.118371
    28  H    0.071463
    29  H    0.072130
    30  H    0.077014
    31  N    0.254446
    32  O   -0.212600
    33  O   -0.217274
    34  Cl  -0.238431
    35  H    0.243973
    36  O   -0.177424
    37  H    0.230435
 Sum of Mulliken charges =   1.00000

 Dipole moment (field-independent basis, Debye):
    X=             -3.4859    Y=             -0.6871    Z=              1.6727  Tot=              3.9270
 Quadrupole moment (field-independent basis, Debye-Ang):
   XX=           -147.7554   YY=           -129.0692   ZZ=           -132.1745
   XY=             10.9029   XZ=            -15.4326   YZ=             -6.4598

  Exact polarizability:     229.037     -10.126     198.010       8.530      -3.880     192.775
 Approx polarizability:     323.094     -25.327     301.015      26.273      -9.099     352.885

                      1                      2                      3
                      A                      A                      A
 Frequencies --     13.7605                18.7626                20.7430
 Red. masses --      5.4529                 6.4213                 6.5557
 Frc consts  --      0.0006                 0.0013                 0.0017
 IR Inten    --      0.4308                 0.0360                 0.3943

                      4                      5                      6
                      A                      A                      A
 Frequencies --     46.5802                51.3404                54.1279
 Red. masses --      6.7053                 3.4256                 3.7468
 Frc consts  --      0.0086                 0.0053                 0.0065
 IR Inten    --      0.8981                 0.0589                 0.5891

                      7                      8                      9
                      A                      A                      A
 Frequencies --     63.9122                87.9445                92.2551
 Red. masses --     13.1137                 3.8919                 1.2866
 Frc consts  --      0.0316                 0.0177                 0.0065
 IR Inten    --      2.1235                 0.7486                 0.8974

                     10                     11                     12
                      A                      A                      A
 Frequencies --     94.0456               107.2211               116.7646
 Red. masses --      1.3546                 4.7969                 1.7976
 Frc consts  --      0.0071                 0.0325                 0.0144
 IR Inten    --      1.2014                 7.4766                 3.8230

                     13                     14                     15
                      A                      A                      A
 Frequencies --    126.4481               141.0162               143.4915
 Red. masses --      1.9133                 7.6213                 1.1430
 Frc consts  --      0.0180                 0.0893                 0.0139
 IR Inten    --      3.3022                 1.2110                 1.1142

                     16                     17                     18
                      A                      A                      A
 Frequencies --    165.6083               171.0045               173.1276
 Red. masses --      5.8608                 4.1219                 4.7372
 Frc consts  --      0.0947                 0.0710                 0.0837
 IR Inten    --      1.0002                 8.3702                 3.4680

                     19                     20                     21
                      A                      A                      A
 Frequencies --    184.7079               196.6302               211.6686
 Red. masses --      6.6216                 5.5813                 4.5435
 Frc consts  --      0.1331                 0.1271                 0.1199
 IR Inten    --     11.7424                 1.7412                 5.2777

                     22                     23                     24
                      A                      A                      A
 Frequencies --    216.0428               227.7115               258.4153
 Red. masses --      5.3891                 4.0235                 7.9595
 Frc consts  --      0.1482                 0.1229                 0.3132
 IR Inten    --      1.6781                 2.3752                 1.6312

                     25                     26                     27
                      A                      A                      A
 Frequencies --    267.0432               276.3483               281.0703
 Red. masses --      4.5325                 1.2051                 2.8343
 Frc consts  --      0.1904                 0.0542                 0.1319
 IR Inten    --      9.7561                42.7930                12.6226

                     28                     29                     30
                      A                      A                      A
 Frequencies --    288.1184               358.2727               363.7630
 Red. masses --      3.0992                 7.7458                 6.2926
 Frc consts  --      0.1516                 0.5858                 0.4906
 IR Inten    --      9.0684                16.5738                 9.6663

                     31                     32                     33
                      A                      A                      A
 Frequencies --    373.0338               390.6137               394.7248
 Red. masses --      4.5165                 6.1256                 6.4152
 Frc consts  --      0.3703                 0.5507                 0.5889
 IR Inten    --      1.4585                 0.0142                 0.3198

                     34                     35                     36
                      A                      A                      A
 Frequencies --    424.9198               460.0515               469.2816
 Red. masses --      6.6573                 7.4374                 7.2067
 Frc consts  --      0.7082                 0.9274                 0.9351
 IR Inten    --      9.7083                 2.8401                 0.3130

                     37                     38                     39
                      A                      A                      A
 Frequencies --    585.6657               589.3649               612.9227
 Red. masses --      4.6615                 4.4856                 4.4301
 Frc consts  --      0.9421                 0.9180                 0.9806
 IR Inten    --      3.4506                 5.5490                 1.9372

                     40                     41                     42
                      A                      A                      A
 Frequencies --    616.9949               636.9819               643.3629
 Red. masses --      4.2990                 5.8075                 5.8064
 Frc consts  --      0.9642                 1.3883                 1.4160
 IR Inten    --     10.3817                 1.0111                 0.0942

                     43                     44                     45
                      A                      A                      A
 Frequencies --    653.9753               656.4300               679.4311
 Red. masses --      4.4932                 4.6785                 1.2284
 Frc consts  --      1.1322                 1.1878                 0.3341
 IR Inten    --      0.3757                 0.2455               247.4061

                     46                     47                     48
                      A                      A                      A
 Frequencies --    767.6107               767.7984               783.4119
 Red. masses --     10.1921                10.3329                 1.7011
 Frc consts  --      3.5383                 3.5890                 0.6151
 IR Inten    --      8.8793                10.0917                52.5939

                     49                     50                     51
                      A                      A                      A
 Frequencies --    787.6645               790.9576               865.2433
 Red. masses --      2.2858                 4.0750                12.0292
 Frc consts  --      0.8356                 1.5021                 5.3059
 IR Inten    --     17.3848                 1.3287                99.2850

                     52                     53                     54
                      A                      A                      A
 Frequencies --    867.1128               961.0797               967.8855
 Red. masses --     11.4883                 2.2627                 1.9300
 Frc consts  --      5.0893                 1.2314                 1.0653
 IR Inten    --     54.4877                 9.0035                 5.1463

                     55                     56                     57
                      A                      A                      A
 Frequencies --   1005.8057              1017.1713              1033.3714
 Red. masses --      3.5089                 4.3807                 1.5561
 Frc consts  --      2.0915                 2.6704                 0.9791
 IR Inten    --     14.2954                14.1542                 3.0751

                     58                     59                     60
                      A                      A                      A
 Frequencies --   1033.7858              1035.2545              1041.3683
 Red. masses --      1.5571                 1.6829                 1.6769
 Frc consts  --      0.9805                 1.0627                 1.0715
 IR Inten    --      2.1446                 3.9618                 5.6496

                     61                     62                     63
                      A                      A                      A
 Frequencies --   1044.0250              1044.2106              1107.5923
 Red. masses --      1.5963                 1.6434                 6.1499
 Frc consts  --      1.0252                 1.0558                 4.4451
 IR Inten    --      5.5267                 5.2894                 9.9867

                     64                     65                     66
                      A                      A                      A
 Frequencies --   1114.0257              1216.0768              1217.6870
 Red. masses --      6.4456                 7.2686                 7.3151
 Frc consts  --      4.7130                 6.3332                 6.3906
 IR Inten    --      8.1263                22.5892                 9.3032

                     67                     68                     69
                      A                      A                      A
 Frequencies --   1308.4604              1309.9062              1388.4142
 Red. masses --      4.3479                 4.3267                 1.2488
 Frc consts  --      4.3858                 4.3740                 1.4183
 IR Inten    --     10.5153                17.9483                11.9925

                     70                     71                     72
                      A                      A                      A
 Frequencies --   1389.3413              1390.1403              1390.7822
 Red. masses --      1.2473                 1.2237                 1.2345
 Frc consts  --      1.4185                 1.3932                 1.4069
 IR Inten    --     18.5307                 6.3517                 4.0698

                     73                     74                     75
                      A                      A                      A
 Frequencies --   1417.6567              1419.1610              1426.8396
 Red. masses --      1.9252                 1.8197                 1.0432
 Frc consts  --      2.2797                 2.1592                 1.2514
 IR Inten    --    100.3755                 2.4161                16.1580

                     76                     77                     78
                      A                      A                      A
 Frequencies --   1427.5600              1430.2301              1430.8682
 Red. masses --      1.0409                 1.6304                 1.1397
 Frc consts  --      1.2498                 1.9650                 1.3749
 IR Inten    --     14.1038               206.5557                31.0030

                     79                     80                     81
                      A                      A                      A
 Frequencies --   1431.5872              1436.2458              1443.2764
 Red. masses --      1.5255                 1.0624                 1.5849
 Frc consts  --      1.8421                 1.2913                 1.9451
 IR Inten    --     70.9419                10.9973               135.1767

                     82                     83                     84
                      A                      A                      A
 Frequencies --   1444.0190              1506.4196              1508.0256
 Red. masses --      1.5658                 5.9688                 5.8077
 Frc consts  --      1.9237                 7.9805                 7.7816
 IR Inten    --     88.9611                56.5456                45.6997

                     85                     86                     87
                      A                      A                      A
 Frequencies --   1541.0579              1545.7582              1610.9196
 Red. masses --      6.3740                 6.8679                 1.0800
 Frc consts  --      8.9186                 9.6684                 1.6513
 IR Inten    --     35.4201                21.2253                93.7584

                     88                     89                     90
                      A                      A                      A
 Frequencies --   1630.1532              1631.1011              1691.9380
 Red. masses --      9.4640                 9.4926                13.6392
 Frc consts  --     14.8178                14.8797                23.0043
 IR Inten    --     42.2705                39.9021               231.4825

                     91                     92                     93
                      A                      A                      A
 Frequencies --   1693.5622              3055.7244              3056.0264
 Red. masses --     13.6044                 1.0362                 1.0362
 Frc consts  --     22.9897                 5.7008                 5.7020
 IR Inten    --    401.2024                 7.8301                 7.6156

                     94                     95                     96
                      A                      A                      A
 Frequencies --   3058.3898              3062.4761              3133.7321
 Red. masses --      1.0361                 1.0368                 1.1015
 Frc consts  --      5.7100                 5.7290                 6.3731
 IR Inten    --      3.7798                 6.2109                 3.6998

                     97                     98                     99
                      A                      A                      A
 Frequencies --   3134.4312              3140.7557              3144.2562
 Red. masses --      1.1015                 1.1016                 1.1009
 Frc consts  --      6.3760                 6.4021                 6.4128
 IR Inten    --      4.1311                 1.9286                 3.1777

                    100                    101                    102
                      A                      A                      A
 Frequencies --   3168.5165              3172.1960              3172.6906
 Red. masses --      1.1076                 1.1073                 1.1073
 Frc consts  --      6.5517                 6.5651                 6.5668
 IR Inten    --      2.7414                 3.8308                 4.0892

                    103                    104                    105
                      A                      A                      A
 Frequencies --   3180.0907              3587.2389              3776.2911
 Red. masses --      1.1072                 1.0562                 1.0718
 Frc consts  --      6.5973                 8.0081                 9.0051
 IR Inten    --      2.0735               125.0286               178.1098

 - Thermochemistry -
 -------------------
 Temperature   298.150 Kelvin.  Pressure   1.00000 Atm.
 Atom     1 has atomic number 78 and mass 194.96480

 Molecular mass:   532.01990 amu.
 Principal axes and moments of inertia in atomic units:
                           1         2         3
     Eigenvalues --  7738.66278********************
           X            0.99994   0.00983  -0.00400
           Y           -0.00986   0.99992  -0.00804
           Z            0.00392   0.00808   0.99996
 This molecule is an asymmetric top.
 Rotational symmetry number  1.
 Warning -- assumption of classical behavior for rotation
           may cause significant error
 Rotational temperatures (Kelvin)      0.01119     0.00634     0.00488
 Rotational constants (GHZ):           0.23321     0.13207     0.10178
 Zero-point vibrational energy     688816.2 (Joules/Mol)
                                  164.63103 (Kcal/Mol)
 Warning -- explicit consideration of  40 degrees of freedom as
           vibrations may cause significant error
 Vibrational temperatures:     19.80    27.00    29.84    67.02    73.87
          (Kelvin)             77.88    91.96   126.53   132.73   135.31
                              154.27   168.00   181.93   202.89   206.45
                              238.27   246.04   249.09   265.75   282.91
                              304.54   310.84   327.63   371.80   384.22
                              397.60   404.40   414.54   515.47   523.37
                              536.71   562.01   567.92   611.36   661.91
                              675.19   842.64   847.96   881.86   887.72
                              916.47   925.66   940.92   944.46   977.55
                             1104.42  1104.69  1127.16  1133.27  1138.01
                             1244.89  1247.58  1382.78  1392.57  1447.13
                             1463.48  1486.79  1487.39  1489.50  1498.30
                             1502.12  1502.39  1593.58  1602.83  1749.66
                             1751.98  1882.58  1884.66  1997.62  1998.95
                             2000.10  2001.03  2039.69  2041.86  2052.90
                             2053.94  2057.78  2058.70  2059.73  2066.44
                             2076.55  2077.62  2167.40  2169.71  2217.24
                             2224.00  2317.75  2345.43  2346.79  2434.32
                             2436.66  4396.51  4396.94  4400.34  4406.22
                             4508.74  4509.75  4518.85  4523.88  4558.79
                             4564.08  4564.79  4575.44  5161.24  5433.24

 Zero-point correction=                           0.262356 (Hartree/Particle)
 Thermal correction to Energy=                    0.288607
 Thermal correction to Enthalpy=                  0.289551
 Thermal correction to Gibbs Free Energy=         0.201368
 Sum of electronic and zero-point Energies=          -1713.002072
 Sum of electronic and thermal Energies=             -1712.975821
 Sum of electronic and thermal Enthalpies=           -1712.974877
 Sum of electronic and thermal Free Energies=        -1713.063060

                     E (Thermal)             CV                S
                      KCal/Mol        Cal/Mol-Kelvin    Cal/Mol-Kelvin
 Total                  181.104             90.309            185.596
 Electronic               0.000              0.000              0.000
 Translational            0.889              2.981             44.700
 Rotational               0.889              2.981             35.882
 Vibrational            179.326             84.347            105.014
 Vibration     1          0.593              1.986              7.377
 Vibration     2          0.593              1.986              6.761
 Vibration     3          0.593              1.986              6.562
 Vibration     4          0.595              1.979              4.958
 Vibration     5          0.596              1.977              4.765
 Vibration     6          0.596              1.976              4.661
 Vibration     7          0.597              1.972              4.333
 Vibration     8          0.601              1.958              3.705
 Vibration     9          0.602              1.955              3.612
 Vibration    10          0.603              1.953              3.574
 Vibration    11          0.606              1.943              3.319
 Vibration    12          0.608              1.935              3.153
 Vibration    13          0.611              1.927              2.999
 Vibration    14          0.615              1.912              2.790
 Vibration    15          0.616              1.910              2.757
 Vibration    16          0.624              1.885              2.485
 Vibration    17          0.626              1.878              2.424
 Vibration    18          0.627              1.876              2.401
 Vibration    19          0.631              1.861              2.280
 Vibration    20          0.636              1.845              2.164
 Vibration    21          0.643              1.823              2.029
 Vibration    22          0.645              1.817              1.992
 Vibration    23          0.651              1.799              1.897
 Vibration    24          0.667              1.749              1.672
 Vibration    25          0.672              1.734              1.615
 Vibration    26          0.678              1.717              1.556
 Vibration    27          0.681              1.709              1.527
 Vibration    28          0.685              1.696              1.485
 Vibration    29          0.733              1.558              1.130
 Vibration    30          0.737              1.547              1.106
 Vibration    31          0.744              1.527              1.067
 Vibration    32          0.758              1.490              0.998
 Vibration    33          0.762              1.481              0.982
 Vibration    34          0.787              1.416              0.875
 Vibration    35          0.818              1.339              0.766
 Vibration    36          0.826              1.318              0.740
 Vibration    37          0.943              1.062              0.475
 Vibration    38          0.947              1.054              0.468
 Vibration    39          0.972              1.005              0.428
 Vibration    40          0.977              0.996              0.421

 Optimization completed.
    -- Stationary point found.
 Normal termination of Gaussian 16 at Sat Aug  2 11:31:03 2025.
