 Gaussian 16, Revision C.01,
 Gaussian 16:  ES64L-G16RevC.01  3-Jul-2019

 ----------------------------------------------------------------------
 # B3LYP/genecp Integral=(Grid=UltraFine) Opt=calcfc scf=xqc Pop(MK,Rea
 dRadii) IOp(6/33=2,6/42=6)
 ----------------------------------------------------------------------

 ---
 CLR
 ---
 Symbolic Z-matrix:
 Charge =  1 Multiplicity = 1

 SCF Done:  E(RB3LYP) =  -1713.23379570     A.U. after   21 cycles

  Exact polarizability:       0.000       0.000       0.000       0.000       0.000       0.000
 Approx polarizability:     365.606     -15.790     327.371     -74.449     -13.229     304.045

 SCF Done:  E(RB3LYP) =  -1713.24211174     A.U. after   12 cycles
 SCF Done:  E(RB3LYP) =  -1713.24501346     A.U. after   14 cycles
 SCF Done:  E(RB3LYP) =  -1713.20760108     A.U. after   13 cycles
 SCF Done:  E(RB3LYP) =  -1713.24528182     A.U. after   10 cycles
 SCF Done:  E(RB3LYP) =  -1713.24787402     A.U. after   12 cycles
 SCF Done:  E(RB3LYP) =  -1713.24845607     A.U. after   15 cycles
 SCF Done:  E(RB3LYP) =  -1713.24972109     A.U. after   12 cycles
 SCF Done:  E(RB3LYP) =  -1713.24982407     A.U. after   12 cycles
 SCF Done:  E(RB3LYP) =  -1713.25069984     A.U. after   11 cycles
 SCF Done:  E(RB3LYP) =  -1713.25103952     A.U. after   11 cycles
 SCF Done:  E(RB3LYP) =  -1713.25145564     A.U. after   11 cycles
 SCF Done:  E(RB3LYP) =  -1713.25219026     A.U. after   11 cycles
 SCF Done:  E(RB3LYP) =  -1713.25250186     A.U. after   12 cycles
 SCF Done:  E(RB3LYP) =  -1713.25257238     A.U. after   11 cycles
 SCF Done:  E(RB3LYP) =  -1713.25257780     A.U. after    9 cycles
 SCF Done:  E(RB3LYP) =  -1713.25257837     A.U. after    8 cycles
 SCF Done:  E(RB3LYP) =  -1713.25257856     A.U. after    8 cycles
 SCF Done:  E(RB3LYP) =  -1713.25257859     A.U. after    7 cycles
 Optimization completed.
    -- Stationary point found.

                         Standard orientation:
 ---------------------------------------------------------------------
 Center     Atomic      Atomic             Coordinates (Angstroms)
 Number     Number       Type             X           Y           Z
 ---------------------------------------------------------------------
      1         78           0        0.067833   -1.552962   -0.005871
      2          7           0       -1.375947   -0.130531    0.055178
      3          6           0       -1.716908    0.875073   -0.721073
      4          6           0       -3.367236    0.521002    0.773822
      5          6           0       -2.991339    1.331736   -0.277682
      6          8           0       -2.374465   -0.334573    0.997036
      7          6           0       -4.572464    0.409453    1.611874
      8          1           0       -4.396515   -0.275153    2.451824
      9          1           0       -4.877128    1.399193    1.981268
     10          1           0       -5.412881    0.037212    1.002842
     11          6           0        0.818280    1.158769    2.095580
     12          1           0        1.476095    1.359724    2.953339
     13          1           0        0.214188    2.069216    1.960840
     14          1           0        0.172100    0.302107    2.318424
     15          7           0       -3.767340    2.379434   -0.845184
     16          8           0       -3.249433    3.074581   -1.712416
     17          8           0       -4.915238    2.529825   -0.437781
     18          7           0        1.465073   -0.133759    0.101809
     19          6           0        1.640712    0.909092    0.888031
     20          6           0        3.144978    1.008762   -0.794383
     21          6           0        2.715694    1.667119    0.340224
     22          8           0        2.384788   -0.076260   -0.938334
     23          6           0        4.199910    1.251504   -1.793130
     24          1           0        4.115103    2.272519   -2.193374
     25          1           0        5.189352    1.190066   -1.312055
     26          1           0        4.137315    0.512561   -2.602375
     27          6           0       -0.879907    1.345918   -1.849440
     28          1           0       -0.496141    2.356317   -1.638528
     29          1           0       -0.050838    0.655585   -2.043308
     30          1           0       -1.498224    1.444179   -2.753100
     31          7           0        3.260486    2.881589    0.853669
     32          8           0        2.729436    3.379529    1.838187
     33          8           0        4.230527    3.358904    0.274865
     34         17           0        1.691922   -3.215468   -0.081957
     35          1           0       -1.747707   -3.275641    0.695116
     36          8           0       -1.415154   -2.973521   -0.169441
     37          1           0       -1.028288   -3.769484   -0.587864
 ---------------------------------------------------------------------

 The electronic state is 1-A.
 Alpha  occ. eigenvalues -- -101.57969 -19.41625 -19.40770 -19.37873 -19.29201
 Alpha  occ. eigenvalues --  -19.29134 -19.28791 -19.28698 -14.69778 -14.69373
 Alpha  occ. eigenvalues --  -14.59656 -14.59357 -10.45292 -10.44635 -10.42975
 Alpha  occ. eigenvalues --  -10.42655 -10.40188 -10.39625 -10.35109 -10.34898
 Alpha  occ. eigenvalues --  -10.34761 -10.34009  -9.53162  -7.29900  -7.29181
 Alpha  occ. eigenvalues --   -7.29156  -4.11015  -2.36908  -2.36235  -2.32190
 Alpha  occ. eigenvalues --   -1.35437  -1.35052  -1.34210  -1.33332  -1.22785
 Alpha  occ. eigenvalues --   -1.17627  -1.17319  -1.08025  -1.07341  -1.01164
 Alpha  occ. eigenvalues --   -1.00514  -0.91464  -0.90784  -0.88920  -0.88349
 Alpha  occ. eigenvalues --   -0.88165  -0.86191  -0.85525  -0.77753  -0.77103
 Alpha  occ. eigenvalues --   -0.75276  -0.74431  -0.73922  -0.69561  -0.68930
 Alpha  occ. eigenvalues --   -0.68573  -0.68503  -0.67317  -0.66360  -0.65753
 Alpha  occ. eigenvalues --   -0.65721  -0.64132  -0.63203  -0.62682  -0.60943
 Alpha  occ. eigenvalues --   -0.59921  -0.59306  -0.58733  -0.58607  -0.58464
 Alpha  occ. eigenvalues --   -0.57838  -0.57654  -0.56639  -0.56142  -0.55737
 Alpha  occ. eigenvalues --   -0.55411  -0.54850  -0.54089  -0.53262  -0.50635
 Alpha  occ. eigenvalues --   -0.48451  -0.46721  -0.46348  -0.46151  -0.45125
 Alpha  occ. eigenvalues --   -0.44242  -0.43961  -0.43807  -0.43770  -0.43428
 Alpha  occ. eigenvalues --   -0.42280  -0.41961  -0.41716  -0.40776  -0.38578
 Alpha  occ. eigenvalues --   -0.37575
 Alpha virt. eigenvalues --   -0.22115  -0.21479  -0.20520  -0.19875  -0.18983
 Alpha virt. eigenvalues --   -0.13312  -0.11683  -0.10236  -0.09666  -0.08577
 Alpha virt. eigenvalues --   -0.07530  -0.06888  -0.05148  -0.04680  -0.04436

 Mulliken charges:
               1
     1  Pt   0.327453
     2  N   -0.184951
     3  C    0.022299
     4  C    0.066955
     5  C    0.007064
     6  O   -0.145744
     7  C    0.113473
     8  H    0.056772
     9  H    0.087419
    10  H    0.091242
    11  C    0.117997
    12  H    0.081497
    13  H    0.064079
    14  H    0.062562
    15  N    0.256478
    16  O   -0.220415
    17  O   -0.218225
    18  N   -0.160616
    19  C    0.024848
    20  C    0.068686
    21  C    0.006203
    22  O   -0.118996
    23  C    0.116973
    24  H    0.082543
    25  H    0.092452
    26  H    0.065647
    27  C    0.110267
    28  H    0.070512
    29  H    0.063606
    30  H    0.079634
    31  N    0.255304
    32  O   -0.222570
    33  O   -0.218003
    34  Cl  -0.224489
    35  H    0.250631
    36  O   -0.183271
    37  H    0.254684
 Sum of Mulliken charges =   1.00000

 Dipole moment (field-independent basis, Debye):
    X=             -3.8234    Y=             -2.6647    Z=              0.5395  Tot=              4.6915
 Quadrupole moment (field-independent basis, Debye-Ang):
   XX=           -118.2760   YY=           -149.8448   ZZ=           -139.6424
   XY=             19.0578   XZ=            -21.6285   YZ=             -3.3171

 ESP charges:
               1
     1  Pt   0.110365
     2  N    0.174460
     3  C    0.178289
     4  C    0.389842
     5  C   -0.322288
     6  O   -0.186080
     7  C   -0.355298
     8  H    0.145333
     9  H    0.164172
    10  H    0.164931
    11  C   -0.197530
    12  H    0.155713
    13  H    0.109729
    14  H    0.018000
    15  N    0.814660
    16  O   -0.389439
    17  O   -0.399011
    18  N   -0.054364
    19  C    0.287854
    20  C    0.495287
    21  C   -0.374431
    22  O   -0.160896
    23  C   -0.385506
    24  H    0.154056
    25  H    0.178967
    26  H    0.150009
    27  C   -0.327781
    28  H    0.144734
    29  H    0.084979
    30  H    0.180953
    31  N    0.801337
    32  O   -0.396386
    33  O   -0.393023
    34  Cl  -0.260775
    35  H    0.409652
    36  O   -0.536663
    37  H    0.426149
 Sum of ESP charges =   1.00000

 Normal termination of Gaussian 16 at Sat Aug  2 11:06:17 2025.
