 Gaussian 16, Revision C.01,
 Gaussian 16:  ES64L-G16RevC.01  3-Jul-2019

 ------------------------------------------------------------------
 # B3LYP/genecp Geom=PrintInputOrient Integral=(Grid=UltraFine) Opt
 ------------------------------------------------------------------

 ---
 CLR
 ---
 Symbolic Z-matrix:
 Charge =  1 Multiplicity = 1

 SCF Done:  E(RB3LYP) =  -1713.23379570     A.U. after   21 cycles
 SCF Done:  E(RB3LYP) =  -1713.24756808     A.U. after   15 cycles
 SCF Done:  E(RB3LYP) =  -1713.23730054     A.U. after   17 cycles
 SCF Done:  E(RB3LYP) =  -1713.25035795     A.U. after   15 cycles
 SCF Done:  E(RB3LYP) =  -1713.24631914     A.U. after   16 cycles
 SCF Done:  E(RB3LYP) =  -1713.25096424     A.U. after   13 cycles
 SCF Done:  E(RB3LYP) =  -1713.25305280     A.U. after   14 cycles
 SCF Done:  E(RB3LYP) =  -1713.24627055     A.U. after   15 cycles
 SCF Done:  E(RB3LYP) =  -1713.25679597     A.U. after   14 cycles
 SCF Done:  E(RB3LYP) =  -1713.25970309     A.U. after   16 cycles
 SCF Done:  E(RB3LYP) =  -1713.26442044     A.U. after    9 cycles
 SCF Done:  E(RB3LYP) =  -1713.26442441     A.U. after    9 cycles
 SCF Done:  E(RB3LYP) =  -1713.26442650     A.U. after   10 cycles
 SCF Done:  E(RB3LYP) =  -1713.26442729     A.U. after    9 cycles
 SCF Done:  E(RB3LYP) =  -1713.26442754     A.U. after    9 cycles
 SCF Done:  E(RB3LYP) =  -1713.26442759     A.U. after    7 cycles
 SCF Done:  E(RB3LYP) =  -1713.26442765     A.U. after    7 cycles
 SCF Done:  E(RB3LYP) =  -1713.26442772     A.U. after    8 cycles
 SCF Done:  E(RB3LYP) =  -1713.26442777     A.U. after    7 cycles
 SCF Done:  E(RB3LYP) =  -1713.26442780     A.U. after    7 cycles
 Optimization completed.
    -- Stationary point found.

                         Standard orientation:
 ---------------------------------------------------------------------
 Center     Atomic      Atomic             Coordinates (Angstroms)
 Number     Number       Type             X           Y           Z
 ---------------------------------------------------------------------
      1         78           0        0.088794   -1.407811   -0.019219
      2          7           0       -1.545568   -0.158256    0.195995
      3          6           0       -2.498491    0.253835   -0.623385
      4          6           0       -2.867059    1.160790    1.408842
      5          6           0       -3.367452    1.101707    0.124940
      6          8           0       -1.767379    0.400306    1.449737
      7          6           0       -3.285130    1.849465    2.651210
      8          1           0       -2.589105    1.619685    3.468236
      9          1           0       -3.326198    2.936515    2.483604
     10          1           0       -4.305038    1.540603    2.926954
     11          6           0        2.772981   -0.167486    1.912774
     12          1           0        3.727015   -0.699198    1.774502
     13          1           0        2.940944    0.587364    2.693036
     14          1           0        2.005353   -0.885673    2.224621
     15          7           0       -4.549646    1.781517   -0.357098
     16          8           0       -4.847648    1.608181   -1.526268
     17          8           0       -5.148893    2.472481    0.449070
     18          7           0        1.343441    0.134834   -0.085141
     19          6           0        2.388958    0.498547    0.640078
     20          6           0        2.271851    1.827013   -1.182255
     21          6           0        3.006153    1.589570   -0.039687
     22          8           0        1.265225    0.945746   -1.208277
     23          6           0        2.378004    2.793346   -2.298716
     24          1           0        2.362322    3.822912   -1.910714
     25          1           0        3.345893    2.668450   -2.808363
     26          1           0        1.558769    2.643177   -3.013508
     27          6           0       -2.566014   -0.153189   -2.053291
     28          1           0       -2.615519    0.738858   -2.693911
     29          1           0       -1.697732   -0.766716   -2.326284
     30          1           0       -3.492981   -0.716848   -2.238015
     31          7           0        4.179791    2.325708    0.378295
     32          8           0        4.712584    1.975204    1.416341
     33          8           0        4.536127    3.238363   -0.347573
     34         17           0        1.802538   -2.917696   -0.323186
     35          1           0       -1.494699   -3.373285    0.837305
     36          8           0       -1.114260   -3.136065   -0.026217
     37          1           0       -0.473050   -3.847711   -0.246165
 ---------------------------------------------------------------------

 The electronic state is 1-A.
 Alpha  occ. eigenvalues -- -101.59146 -19.40624 -19.40568 -19.36784 -19.29065
 Alpha  occ. eigenvalues --  -19.29029 -19.28687 -19.28634 -14.69652 -14.69276
 Alpha  occ. eigenvalues --  -14.59204 -14.58584 -10.44536 -10.44304 -10.42238
 Alpha  occ. eigenvalues --  -10.42102 -10.39409 -10.39105 -10.34370 -10.34079
 Alpha  occ. eigenvalues --  -10.34061 -10.33341  -9.54361  -7.31079  -7.30405
 Alpha  occ. eigenvalues --   -7.30343  -4.10789  -2.36634  -2.36023  -2.31956
 Alpha  occ. eigenvalues --   -1.35506  -1.35138  -1.32951  -1.32839  -1.21521
 Alpha  occ. eigenvalues --   -1.18201  -1.17827  -1.06641  -1.06531  -1.00025
 Alpha  occ. eigenvalues --   -0.99839  -0.90128  -0.89896  -0.89575  -0.87757
 Alpha  occ. eigenvalues --   -0.87452  -0.85110  -0.84905  -0.76584  -0.76506
 Alpha  occ. eigenvalues --   -0.74355  -0.73431  -0.73288  -0.68554  -0.68386
 Alpha  occ. eigenvalues --   -0.68247  -0.68090  -0.66439  -0.65964  -0.65439
 Alpha  occ. eigenvalues --   -0.64750  -0.63489  -0.63007  -0.62563  -0.59967
 Alpha  occ. eigenvalues --   -0.59348  -0.58379  -0.58076  -0.57465  -0.57288
 Alpha  occ. eigenvalues --   -0.57133  -0.57002  -0.55612  -0.55522  -0.55096
 Alpha  occ. eigenvalues --   -0.54762  -0.54349  -0.53255  -0.52637  -0.50652
 Alpha  occ. eigenvalues --   -0.47698  -0.47208  -0.46342  -0.45685  -0.44346
 Alpha  occ. eigenvalues --   -0.43843  -0.43746  -0.43466  -0.43441  -0.43355
 Alpha  occ. eigenvalues --   -0.42499  -0.42167  -0.42070  -0.40533  -0.39389
 Alpha  occ. eigenvalues --   -0.38395
 Alpha virt. eigenvalues --   -0.21308  -0.21018  -0.20864  -0.19087  -0.18611
 Alpha virt. eigenvalues --   -0.12830  -0.11668  -0.09633  -0.09229  -0.07736
 Alpha virt. eigenvalues --   -0.06362  -0.06036  -0.04933  -0.04638  -0.03868

 Mulliken charges:
               1
     1  Pt   0.338166
     2  N   -0.179762
     3  C    0.019051
     4  C    0.061726
     5  C    0.010475
     6  O   -0.143305
     7  C    0.116494
     8  H    0.057547
     9  H    0.085046
    10  H    0.086632
    11  C    0.125377
    12  H    0.084159
    13  H    0.069100
    14  H    0.066333
    15  N    0.254634
    16  O   -0.215536
    17  O   -0.216466
    18  N   -0.161212
    19  C    0.036853
    20  C    0.071146
    21  C    0.007048
    22  O   -0.141524
    23  C    0.116942
    24  H    0.084088
    25  H    0.090035
    26  H    0.054849
    27  C    0.118371
    28  H    0.071463
    29  H    0.072130
    30  H    0.077014
    31  N    0.254446
    32  O   -0.212600
    33  O   -0.217273
    34  Cl  -0.238430
    35  H    0.243973
    36  O   -0.177425
    37  H    0.230435
 Sum of Mulliken charges =   1.00000

 Dipole moment (field-independent basis, Debye):
    X=             -3.4859    Y=             -0.6871    Z=              1.6727  Tot=              3.9270
 Quadrupole moment (field-independent basis, Debye-Ang):
   XX=           -147.7553   YY=           -129.0691   ZZ=           -132.1745
   XY=             10.9029   XZ=            -15.4327   YZ=             -6.4598

 Normal termination of Gaussian 16 at Sat Aug  2 11:04:59 2025.
